ITEM: TIMESTEP
0
ITEM: NUMBER OF ATOMS
1600
ITEM: BOX BOUNDS pp pp pp
-3.0000000000000000e+01 3.0000000000000000e+01
-3.0000000000000000e+01 3.0000000000000000e+01
-5.0000000000000000e-01 5.0000000000000000e-01
ITEM: ATOMS id type xs ys zs
798 1 0.023443 0.00569381 0.5
1479 1 0.040043 0.00343921 0.5
261 1 0.0553345 0.00752171 0.5
1237 1 0.0528953 0.0115673 0.5
1399 1 0.114774 0.00368232 0.5
168 1 0.137087 0.0148562 0.5
618 1 0.154638 0.00307143 0.5
775 1 0.164218 0.00473714 0.5
1538 2 0.147261 0.0120712 0.5
1190 1 0.197419 0.0180251 0.5
319 1 0.232463 0.012121 0.5
897 1 0.232166 0.021034 0.5
650 1 0.296663 0.0111969 0.5
831 1 0.313561 0.012395 0.5
859 1 0.329685 0.0110275 0.5
97 1 0.351402 0.0196084 0.5
1107 1 0.35997 0.0216174 0.5
253 1 0.39799 0.0117184 0.5
438 1 0.383948 0.00659861 0.5
664 1 0.38835 0.00247813 0.5
951 1 0.398822 0.0093677 0.5
1258 1 0.382996 0.0217246 0.5
351 1 0.472244 0.000968254 0.5
1159 1 0.47046 0.0198616 0.5
214 1 0.539002 0.00743029 0.5
777 1 0.541858 0.00808692 0.5
1495 1 0.534302 0.011213 0.5
1515 2 0.541917 0.0016132 0.5
1229 1 0.650682 0.00504541 0.5
806 1 0.689475 0.00428611 0.5
122 1 0.691558 0.0173725 0.5
228 1 0.70905 0.00305334 0.5
403 1 0.720177 0.0203922 0.5
473 1 0.749034 0.0227571 0.5
560 1 0.824538 0.00295533 0.5
1511 2 0.832214 0.0218657 0.5
539 1 0.874875 0.0175691 0.5
1376 1 0.885405 0.0070828 0.5
466 1 0.928007 0.0152941 0.5
688 1 0.984531 0.0128029 0.5
1385 1 0.985126 0.0135411 0.5
1588 2 0.0284421 0.0266593 0.5
933 1 0.0496248 0.0433446 0.5
1426 1 0.0600966 0.0441061 0.5
1021 1 0.0890717 0.0275911 0.5
32 1 0.105375 0.0337329 0.5
172 1 0.106625 0.046697 0.5
691 1 0.127508 0.028898 0.5
1060 1 0.163089 0.0363729 0.5
1192 1 0.156722 0.0271852 0.5
1316 1 0.194445 0.0306994 0.5
1436 1 0.194802 0.0316385 0.5
1593 2 0.191113 0.0444147 0.5
528 1 0.221576 0.0317486 0.5
744 1 0.229965 0.0271952 0.5
318 1 0.243769 0.0269045 0.5
431 1 0.247221 0.042152 0.5
451 1 0.252694 0.0245698 0.5
784 1 0.257871 0.0398885 0.5
601 1 0.269949 0.0394561 0.5
1470 1 0.279707 0.0276174 0.5
224 1 0.289643 0.027389 0.5
905 1 0.304339 0.0323299 0.5
129 1 0.3304 0.0282453 0.5
432 1 0.319988 0.0408421 0.5
484 1 0.322605 0.0306253 0.5
622 1 0.328318 0.0359535 0.5
979 1 0.356104 0.0326132 0.5
197 1 0.398704 0.0244126 0.5
1440 1 0.384603 0.0284666 0.5
243 1 0.44321 0.0370662 0.5
723 1 0.437974 0.0367598 0.5
779 1 0.473673 0.0298159 0.5
425 1 0.476351 0.0369567 0.5
183 1 0.513955 0.0464998 0.5
1225 1 0.51211 0.0288219 0.5
390 1 0.544657 0.047548 0.5
973 1 0.527759 0.0440803 0.5
13 1 0.564529 0.0385371 0.5
82 1 0.567682 0.0359 0.5
974 1 0.557508 0.0432713 0.5
162 1 0.58095 0.030894 0.5
1109 1 0.616531 0.042603 0.5
942 1 0.677577 0.0390097 0.5
1254 1 0.671925 0.0473529 0.5
1587 2 0.667522 0.0436626 0.5
119 1 0.729044 0.0469851 0.5
1065 1 0.717501 0.0310486 0.5
516 1 0.792053 0.0403116 0.5
761 1 0.80901 0.0294244 0.5
1054 1 0.792946 0.0360812 0.5
462 1 0.827336 0.0406007 0.5
1260 1 0.822696 0.0454387 0.5
576 1 0.897663 0.0244749 0.5
658 1 0.884634 0.0465214 0.5
857 1 0.942169 0.0277133 0.5
1291 1 0.998574 0.0358452 0.5
1457 1 0.994409 0.0312574 0.5
1131 1 0.0187454 0.0531242 0.5
1600 2 0.0613475 0.0678705 0.5
1202 1 0.0850876 0.0679384 0.5
1558 2 0.119834 0.0485717 0.5
1214 1 0.144467 0.0619168 0.5
551 1 0.219198 0.0608294 0.5
513 1 0.300058 0.0672915 0.5
44 1 0.345633 0.0493045 0.5
521 1 0.375086 0.0660488 0.5
206 1 0.392102 0.060897 0.5
495 1 0.404002 0.0653209 0.5
1218 1 0.390436 0.0525285 0.5
1431 1 0.427743 0.0703664 0.5
276 1 0.450113 0.0522761 0.5
663 1 0.468083 0.0709423 0.5
771 1 0.536387 0.0603947 0.5
1295 1 0.534721 0.0533722 0.5
1377 1 0.539064 0.0492296 0.5
9 1 0.585831 0.0673114 0.5
1081 1 0.638191 0.0699607 0.5
923 1 0.661394 0.0569078 0.5
77 1 0.70596 0.0710471 0.5
454 1 0.715538 0.0500789 0.5
956 1 0.732616 0.0706511 0.5
1110 1 0.73922 0.0711619 0.5
1485 1 0.750464 0.0551031 0.5
1464 1 0.830253 0.0628646 0.5
1404 1 0.846437 0.0683674 0.5
247 1 0.880588 0.0478243 0.5
1003 1 0.858753 0.0687201 0.5
34 1 0.898022 0.0535889 0.5
1349 1 0.926523 0.0691177 0.5
59 1 0.942409 0.0607196 0.5
1119 1 0.950739 0.066608 0.5
70 1 0.974537 0.0489322 0.5
442 1 0.974896 0.0694137 0.5
286 1 0.0307071 0.0945107 0.5
602 1 0.0246375 0.0817945 0.5
721 1 0.0382038 0.0920903 0.5
377 1 0.0868137 0.07809 0.5
725 1 0.234908 0.0918645 0.5
62 1 0.262456 0.0920748 0.5
1412 1 0.379252 0.0826344 0.5
1108 1 0.393531 0.0762911 0.5
1168 1 0.393413 0.088722 0.5
902 1 0.418342 0.0742065 0.5
132 1 0.429886 0.091497 0.5
1082 1 0.4425 0.0931579 0.5
1522 2 0.432385 0.0886318 0.5
128 1 0.476472 0.0728458 0.5
200 1 0.491229 0.0936182 0.5
657 1 0.504319 0.0929207 0.5
623 1 0.558939 0.0858933 0.5
628 1 0.605884 0.0859392 0.5
985 1 0.62885 0.0870965 0.5
45 1 0.666632 0.078995 0.5
914 1 0.654971 0.0908839 0.5
1286 1 0.659551 0.0800053 0.5
273 1 0.716909 0.0831854 0.5
792 1 0.73577 0.0861634 0.5
795 1 0.737912 0.088589 0.5
588 1 0.746956 0.0919414 0.5
739 1 0.754036 0.0886068 0.5
469 1 0.776527 0.0869806 0.5
908 1 0.782299 0.0917596 0.5
1564 2 0.770695 0.0778749 0.5
383 1 0.792174 0.071771 0.5
6 1 0.817343 0.0895809 0.5
1044 1 0.873986 0.0829156 0.5
904 1 0.895049 0.0891553 0.5
1179 1 0.913374 0.0736358 0.5
1219 1 0.939018 0.0810261 0.5
1102 1 0.976562 0.085726 0.5
1358 1 0.979597 0.0944946 0.5
497 1 0.0194034 0.113521 0.5
316 1 0.0307073 0.0975786 0.5
1193 1 0.027316 0.0998922 0.5
1527 2 0.0418336 0.0966273 0.5
1143 1 0.0595655 0.116872 0.5
160 1 0.172077 0.103519 0.5
1362 1 0.186001 0.116695 0.5
636 1 0.211704 0.107336 0.5
1453 1 0.211704 0.109214 0.5
807 1 0.234909 0.114162 0.5
1435 1 0.234789 0.0990048 0.5
1438 1 0.220986 0.111567 0.5
449 1 0.296728 0.100667 0.5
1357 1 0.286434 0.102421 0.5
36 1 0.32975 0.103252 0.5
342 1 0.323503 0.111812 0.5
868 1 0.322372 0.110373 0.5
1008 1 0.412454 0.113266 0.5
54 1 0.478973 0.0970129 0.5
604 1 0.525085 0.0999026 0.5
41 1 0.572743 0.0986335 0.5
625 1 0.572864 0.117085 0.5
392 1 0.606955 0.0972637 0.5
1314 1 0.612965 0.101677 0.5
1338 1 0.598685 0.103223 0.5
1490 1 0.616417 0.115485 0.5
787 1 0.638728 0.103665 0.5
624 1 0.678414 0.104615 0.5
1201 1 0.703583 0.113378 0.5
1233 1 0.698466 0.109876 0.5
171 1 0.734343 0.108234 0.5
1430 1 0.720777 0.105303 0.5
494 1 0.765759 0.105839 0.5
115 1 0.819903 0.11647 0.5
156 1 0.832159 0.0988628 0.5
544 1 0.843464 0.0986275 0.5
751 1 0.841262 0.0969155 0.5
848 1 0.867918 0.0990552 0.5
74 1 0.882853 0.113586 0.5
217 1 0.903261 0.114612 0.5
1078 1 0.920338 0.11871 0.5
1252 1 0.927655 0.0958745 0.5
557 1 0.976028 0.0963191 0.5
1550 2 0.98299 0.114964 0.5
637 1 0.0173821 0.140293 0.5
114 1 0.0843173 0.120165 0.5
1283 1 0.0936599 0.141747 0.5
53 1 0.0975262 0.123081 0.5
1378 1 0.103418 0.140051 0.5
1031 1 0.15655 0.132908 0.5
460 1 0.170412 0.120508 0.5
400 1 0.264957 0.127144 0.5
745 1 0.272037 0.12777 0.5
355 1 0.321243 0.137188 0.5
642 1 0.393297 0.139455 0.5
1084 1 0.381991 0.119765 0.5
1319 1 0.390678 0.120495 0.5
1599 2 0.413407 0.130924 0.5
651 1 0.475762 0.138087 0.5
354 1 0.515567 0.130324 0.5
231 1 0.554182 0.136589 0.5
1029 1 0.563642 0.123637 0.5
655 1 0.588632 0.134666 0.5
698 1 0.581194 0.127482 0.5
705 1 0.573757 0.138385 0.5
1418 1 0.650927 0.132133 0.5
1204 1 0.67788 0.131096 0.5
1572 2 0.783134 0.135013 0.5
493 1 0.794736 0.124268 0.5
672 1 0.80503 0.137564 0.5
263 1 0.86304 0.121124 0.5
537 1 0.926228 0.120317 0.5
307 1 0.963535 0.129076 0.5
1500 1 0.985906 0.127233 0.5
789 1 0.0197633 0.160988 0.5
148 1 0.0316624 0.150448 0.5
505 1 0.045883 0.154836 0.5
805 1 0.0371363 0.14945 0.5
1124 1 0.0338644 0.159423 0.5
1462 1 0.0418971 0.163886 0.5
1368 1 0.0485609 0.163464 0.5
161 1 0.0715266 0.148248 0.5
398 1 0.0789043 0.143819 0.5
421 1 0.0974684 0.151312 0.5
487 1 0.0956243 0.158404 0.5
101 1 0.163393 0.147665 0.5
1480 1 0.144235 0.158632 0.5
541 1 0.17565 0.149177 0.5
1019 1 0.173448 0.144624 0.5
1524 2 0.214266 0.166595 0.5
1206 1 0.227653 0.164224 0.5
1459 1 0.240861 0.159211 0.5
72 1 0.30268 0.147767 0.5
877 1 0.305061 0.154296 0.5
781 1 0.401807 0.16334 0.5
1566 2 0.390383 0.159782 0.5
274 1 0.45131 0.165036 0.5
1544 2 0.446668 0.155841 0.5
1517 2 0.466541 0.155666 0.5
617 1 0.527647 0.163482 0.5
180 1 0.642003 0.145142 0.5
765 1 0.654439 0.154587 0.5
500 1 0.685794 0.146698 0.5
888 1 0.68752 0.1499 0.5
176 1 0.7112 0.144272 0.5
1099 1 0.693113 0.158111 0.5
292 1 0.731965 0.143615 0.5
668 1 0.71489 0.155718 0.5
1068 1 0.73268 0.15152 0.5
382 1 0.740297 0.164374 0.5
1405 1 0.77665 0.162651 0.5
131 1 0.841385 0.159101 0.5
1013 1 0.871075 0.160915 0.5
252 1 0.917007 0.143867 0.5
1367 1 0.964667 0.153806 0.5
1161 1 0.0208952 0.184818 0.5
652 1 0.039161 0.17877 0.5
1449 1 0.0444565 0.180116 0.5
1132 1 0.128349 0.167023 0.5
687 1 0.14626 0.188281 0.5
137 1 0.18779 0.18127 0.5
758 1 0.174521 0.175241 0.5
201 1 0.232889 0.168952 0.5
240 1 0.236817 0.179564 0.5
916 1 0.218847 0.16827 0.5
1220 1 0.258533 0.169432 0.5
94 1 0.275789 0.177932 0.5
927 1 0.312737 0.176572 0.5
324 1 0.346474 0.189402 0.5
337 1 0.349985 0.189989 0.5
1182 1 0.443695 0.178729 0.5
677 1 0.529254 0.170615 0.5
1006 1 0.54401 0.183374 0.5
1020 1 0.586255 0.189386 0.5
1169 1 0.600117 0.1724 0.5
1241 1 0.638078 0.17666 0.5
949 1 0.657297 0.186424 0.5
634 1 0.750293 0.168135 0.5
241 1 0.774331 0.18176 0.5
420 1 0.784981 0.180796 0.5
373 1 0.823298 0.166875 0.5
861 1 0.82788 0.185885 0.5
1448 1 0.828653 0.177611 0.5
743 1 0.840078 0.187955 0.5
216 1 0.867923 0.177828 0.5
1011 1 0.898029 0.170883 0.5
15 1 0.932956 0.187099 0.5
712 1 0.937715 0.168491 0.5
1315 1 0.962169 0.177481 0.5
175 1 0.985195 0.174106 0.5
446 1 0.0435647 0.191875 0.5
1083 1 0.0945563 0.207053 0.5
952 1 0.105623 0.199334 0.5
1428 1 0.112882 0.206091 0.5
164 1 0.204569 0.197936 0.5
950 1 0.193324 0.194186 0.5
999 1 0.196597 0.198003 0.5
1477 1 0.257464 0.190696 0.5
533 1 0.281442 0.203829 0.5
58 1 0.324103 0.206333 0.5
100 1 0.345464 0.205859 0.5
1151 1 0.355042 0.195433 0.5
275 1 0.371227 0.205444 0.5
523 1 0.380211 0.201691 0.5
506 1 0.384495 0.20785 0.5
284 1 0.404843 0.197482 0.5
1002 1 0.41359 0.212839 0.5
89 1 0.449349 0.20749 0.5
1290 1 0.482014 0.210248 0.5
266 1 0.520034 0.211619 0.5
844 1 0.507361 0.208809 0.5
281 1 0.526995 0.199537 0.5
1402 1 0.529792 0.208734 0.5
1180 1 0.550973 0.197252 0.5
335 1 0.584829 0.212795 0.5
1135 1 0.581497 0.21211 0.5
1114 1 0.606545 0.208619 0.5
1305 1 0.604819 0.196675 0.5
140 1 0.625346 0.193934 0.5
770 1 0.685501 0.212126 0.5
964 1 0.668959 0.19234 0.5
418 1 0.698769 0.213459 0.5
1514 2 0.759517 0.209739 0.5
381 1 0.762908 0.201 0.5
801 1 0.788553 0.21102 0.5
1067 1 0.824193 0.205776 0.5
915 1 0.835438 0.212531 0.5
586 1 0.860487 0.204649 0.5
1398 1 0.905646 0.19802 0.5
159 1 0.937895 0.203056 0.5
300 1 0.982877 0.210816 0.5
891 1 0.997572 0.190845 0.5
972 1 0.0192918 0.237095 0.5
993 1 0.0196485 0.231851 0.5
1347 1 0.0081644 0.219036 0.5
909 1 0.139003 0.229429 0.5
571 1 0.151617 0.223162 0.5
1549 2 0.147511 0.222619 0.5
388 1 0.197848 0.226432 0.5
502 1 0.240628 0.228597 0.5
1091 1 0.285609 0.222395 0.5
1318 1 0.294236 0.228683 0.5
90 1 0.354984 0.221403 0.5
903 1 0.351177 0.225885 0.5
1419 1 0.363196 0.228749 0.5
1454 1 0.362659 0.216325 0.5
925 1 0.446672 0.223132 0.5
875 1 0.462083 0.234561 0.5
1094 1 0.498972 0.221204 0.5
453 1 0.57775 0.235985 0.5
989 1 0.620172 0.223758 0.5
1542 2 0.62398 0.234896 0.5
244 1 0.688417 0.218533 0.5
603 1 0.680385 0.226827 0.5
238 1 0.702875 0.22182 0.5
1416 1 0.691986 0.216865 0.5
259 1 0.714894 0.226281 0.5
1272 1 0.73566 0.232934 0.5
375 1 0.768562 0.225661 0.5
404 1 0.766063 0.224722 0.5
757 1 0.777309 0.224621 0.5
621 1 0.87935 0.236327 0.5
1032 1 0.86751 0.235956 0.5
1456 1 0.880004 0.223563 0.5
922 1 0.926949 0.235294 0.5
1391 1 0.907849 0.219642 0.5
645 1 0.970323 0.223335 0.5
1284 1 0.961874 0.21752 0.5
1590 2 0.981509 0.219917 0.5
662 1 0.019887 0.240016 0.5
706 1 0.00810719 0.257613 0.5
968 1 0.0105461 0.248598 0.5
19 1 0.0806949 0.238894 0.5
144 1 0.0805169 0.247084 0.5
1265 1 0.0933092 0.247144 0.5
356 1 0.100569 0.258903 0.5
632 1 0.174704 0.252976 0.5
1023 1 0.18351 0.260678 0.5
30 1 0.240331 0.244507 0.5
71 1 0.260442 0.242738 0.5
837 1 0.265024 0.251285 0.5
1037 1 0.28091 0.261545 0.5
380 1 0.294714 0.258624 0.5
802 1 0.331245 0.242998 0.5
1576 2 0.356235 0.249166 0.5
1594 2 0.369325 0.247561 0.5
1447 1 0.392352 0.256277 0.5
1215 1 0.437987 0.255335 0.5
1523 2 0.440545 0.24436 0.5
1152 1 0.470533 0.24155 0.5
1585 2 0.501532 0.256616 0.5
293 1 0.555736 0.261142 0.5
477 1 0.597802 0.257837 0.5
166 1 0.623445 0.239424 0.5
99 1 0.704483 0.251415 0.5
154 1 0.699545 0.252621 0.5
714 1 0.712457 0.256936 0.5
1004 1 0.703471 0.239056 0.5
1342 1 0.696629 0.249727 0.5
1322 1 0.734887 0.242304 0.5
1309 1 0.852755 0.255724 0.5
1557 2 0.883634 0.24322 0.5
1145 1 0.908446 0.247115 0.5
416 1 0.949501 0.259008 0.5
579 1 0.94361 0.247704 0.5
855 1 0.942776 0.238762 0.5
839 1 0.978773 0.242737 0.5
1028 1 0.0773644 0.262634 0.5
1136 1 0.0818267 0.261972 0.5
393 1 0.113362 0.267823 0.5
605 1 0.0979518 0.27668 0.5
486 1 0.14085 0.266751 0.5
291 1 0.257052 0.269807 0.5
503 1 0.318634 0.281588 0.5
854 1 0.379323 0.275553 0.5
1026 1 0.35939 0.263442 0.5
1441 1 0.39735 0.269455 0.5
1530 2 0.412761 0.26826 0.5
433 1 0.441142 0.271747 0.5
675 1 0.466488 0.268844 0.5
1089 1 0.457325 0.262716 0.5
1421 1 0.455183 0.263186 0.5
1427 1 0.465655 0.261983 0.5
369 1 0.519918 0.267204 0.5
613 1 0.500759 0.264476 0.5
945 1 0.502784 0.285163 0.5
592 1 0.538244 0.274796 0.5
1016 1 0.541278 0.2663 0.5
345 1 0.570076 0.262788 0.5
813 1 0.549431 0.281459 0.5
1184 1 0.580906 0.281684 0.5
697 1 0.611547 0.270837 0.5
1015 1 0.608215 0.269033 0.5
1433 1 0.692109 0.27657 0.5
555 1 0.771779 0.285031 0.5
195 1 0.800218 0.265061 0.5
111 1 0.828005 0.272004 0.5
417 1 0.901902 0.273487 0.5
575 1 0.887265 0.271119 0.5
869 1 0.881375 0.26232 0.5
141 1 0.921121 0.285692 0.5
481 1 0.906603 0.280676 0.5
1545 2 0.923143 0.271199 0.5
1106 1 0.971397 0.26321 0.5
204 1 0.0272682 0.295936 0.5
299 1 0.0364306 0.289159 0.5
899 1 0.0289933 0.290318 0.5
230 1 0.111875 0.289957 0.5
1259 1 0.154655 0.289172 0.5
1138 1 0.177086 0.291703 0.5
264 1 0.339936 0.302192 0.5
138 1 0.388903 0.290766 0.5
865 1 0.385929 0.303464 0.5
1396 1 0.43079 0.292607 0.5
1030 1 0.533545 0.297847 0.5
1234 1 0.535806 0.28724 0.5
1478 1 0.540804 0.289876 0.5
1571 2 0.532475 0.307834 0.5
113 1 0.590843 0.295629 0.5
187 1 0.640703 0.300822 0.5
456 1 0.639394 0.288345 0.5
1292 1 0.637967 0.303654 0.5
452 1 0.777134 0.296573 0.5
1299 1 0.783619 0.289268 0.5
1424 1 0.77285 0.298046 0.5
1565 2 0.787785 0.303921 0.5
379 1 0.854067 0.303866 0.5
211 1 0.963366 0.29568 0.5
185 1 0.00579036 0.318656 0.5
1111 1 0.00698002 0.313237 0.5
1439 1 0.0235206 0.310694 0.5
37 1 0.0435136 0.332328 0.5
957 1 0.105689 0.319631 0.5
836 1 0.126871 0.32046 0.5
953 1 0.121814 0.323852 0.5
772 1 0.159893 0.315807 0.5
850 1 0.162095 0.322363 0.5
158 1 0.232303 0.31445 0.5
1548 2 0.247892 0.327362 0.5
610 1 0.290076 0.311649 0.5
965 1 0.297157 0.317166 0.5
1033 1 0.316554 0.327348 0.5
907 1 0.348862 0.329652 0.5
237 1 0.359989 0.328873 0.5
1178 1 0.373376 0.326095 0.5
386 1 0.399734 0.331826 0.5
876 1 0.38581 0.311152 0.5
1093 1 0.451735 0.314306 0.5
28 1 0.45834 0.314512 0.5
815 1 0.474762 0.318139 0.5
732 1 0.512068 0.3261 0.5
320 1 0.536403 0.317029 0.5
1415 1 0.546102 0.332435 0.5
499 1 0.555145 0.319321 0.5
1158 1 0.568354 0.317525 0.5
18 1 0.593403 0.328756 0.5
886 1 0.579599 0.322668 0.5
1451 1 0.585252 0.327857 0.5
1526 2 0.577457 0.31784 0.5
229 1 0.619166 0.319606 0.5
689 1 0.627138 0.311384 0.5
1336 1 0.636778 0.323136 0.5
762 1 0.684555 0.323046 0.5
1226 1 0.707463 0.325363 0.5
242 1 0.737688 0.313955 0.5
561 1 0.729358 0.311839 0.5
1246 1 0.777077 0.329633 0.5
1009 1 0.807599 0.324322 0.5
1567 2 0.795521 0.319128 0.5
527 1 0.821819 0.317307 0.5
1492 1 0.810694 0.329208 0.5
835 1 0.847106 0.316957 0.5
1231 1 0.854723 0.332559 0.5
305 1 0.870014 0.33153 0.5
1001 1 0.894647 0.326624 0.5
1050 1 0.911901 0.320826 0.5
1372 1 0.906129 0.31319 0.5
29 1 0.931655 0.327454 0.5
507 1 0.95367 0.323866 0.5
98 1 0.996509 0.319503 0.5
940 1 0.0384563 0.335783 0.5
1516 2 0.0694556 0.340549 0.5
1533 2 0.0616613 0.340652 0.5
729 1 0.0920057 0.340636 0.5
1352 1 0.0891501 0.346428 0.5
1275 1 0.104085 0.35368 0.5
896 1 0.194463 0.33639 0.5
1345 1 0.253368 0.355885 0.5
1235 1 0.280618 0.339517 0.5
1250 1 0.266041 0.350798 0.5
966 1 0.292102 0.350094 0.5
626 1 0.356717 0.34506 0.5
970 1 0.352672 0.355848 0.5
1025 1 0.353087 0.334794 0.5
1205 1 0.400568 0.342075 0.5
1350 1 0.426153 0.356863 0.5
984 1 0.435731 0.333938 0.5
1408 1 0.448524 0.34166 0.5
920 1 0.471669 0.335324 0.5
958 1 0.490054 0.338336 0.5
1175 1 0.495349 0.33562 0.5
1245 1 0.482736 0.347444 0.5
776 1 0.6319 0.339555 0.5
358 1 0.666052 0.344064 0.5
581 1 0.660043 0.338265 0.5
123 1 0.699788 0.344802 0.5
1147 1 0.722398 0.342641 0.5
1046 1 0.746258 0.354375 0.5
1162 1 0.75072 0.343719 0.5
990 1 0.780468 0.333948 0.5
1503 2 0.763214 0.336977 0.5
1200 1 0.792606 0.335784 0.5
710 1 0.8386 0.350494 0.5
872 1 0.846097 0.351244 0.5
222 1 0.861567 0.354078 0.5
946 1 0.866088 0.349149 0.5
1578 2 0.903097 0.347232 0.5
1450 1 0.955277 0.333825 0.5
422 1 0.988537 0.344733 0.5
11 1 0.00049732 0.358461 0.5
531 1 0.00852977 0.359926 0.5
667 1 0.0224528 0.364947 0.5
167 1 0.0385769 0.361208 0.5
279 1 0.0325082 0.365083 0.5
1400 1 0.0503578 0.363271 0.5
1429 1 0.0545233 0.373932 0.5
1221 1 0.0869503 0.37293 0.5
269 1 0.111999 0.368469 0.5
910 1 0.111999 0.360181 0.5
340 1 0.159122 0.361999 0.5
118 1 0.208864 0.376853 0.5
717 1 0.204044 0.363773 0.5
629 1 0.226654 0.365619 0.5
125 1 0.240874 0.364387 0.5
653 1 0.32096 0.371994 0.5
1446 1 0.318461 0.3786 0.5
88 1 0.434068 0.379587 0.5
856 1 0.446323 0.357636 0.5
1209 1 0.452452 0.366446 0.5
724 1 0.508441 0.360476 0.5
105 1 0.583112 0.364672 0.5
584 1 0.59406 0.361831 0.5
587 1 0.640886 0.36368 0.5
12 1 0.661235 0.378443 0.5
1261 1 0.653202 0.36901 0.5
363 1 0.687355 0.3805 0.5
1092 1 0.718711 0.378779 0.5
136 1 0.747388 0.357309 0.5
1386 1 0.753577 0.374859 0.5
1518 2 0.863888 0.369593 0.5
1289 1 0.895363 0.373121 0.5
1486 1 0.903633 0.364852 0.5
488 1 0.0651149 0.386007 0.5
173 1 0.118189 0.402486 0.5
1403 1 0.116225 0.38906 0.5
569 1 0.133241 0.38635 0.5
880 1 0.172035 0.399952 0.5
847 1 0.241708 0.386056 0.5
1360 1 0.278241 0.398691 0.5
1559 2 0.281751 0.382561 0.5
1563 2 0.297875 0.382735 0.5
1045 1 0.323758 0.398753 0.5
572 1 0.346486 0.393756 0.5
1007 1 0.340239 0.398833 0.5
215 1 0.456559 0.38639 0.5
414 1 0.456322 0.398917 0.5
1339 1 0.472327 0.392051 0.5
1207 1 0.481906 0.393435 0.5
202 1 0.578889 0.388817 0.5
686 1 0.6062 0.399214 0.5
1481 1 0.617623 0.38179 0.5
295 1 0.642137 0.402361 0.5
475 1 0.654572 0.398712 0.5
2 1 0.679503 0.39873 0.5
1277 1 0.706158 0.397919 0.5
145 1 0.794454 0.388908 0.5
1346 1 0.875611 0.386277 0.5
221 1 0.94927 0.38753 0.5
638 1 0.984852 0.401548 0.5
928 1 0.0589282 0.405969 0.5
1041 1 0.0901655 0.411294 0.5
803 1 0.125389 0.406341 0.5
932 1 0.135742 0.422773 0.5
219 1 0.185007 0.40958 0.5
524 1 0.189054 0.424361 0.5
1327 1 0.197383 0.413211 0.5
1413 1 0.312751 0.409703 0.5
769 1 0.351486 0.420998 0.5
1531 2 0.36517 0.406716 0.5
245 1 0.404797 0.42606 0.5
790 1 0.447874 0.415298 0.5
842 1 0.560565 0.423276 0.5
1062 1 0.547832 0.418088 0.5
429 1 0.610187 0.414082 0.5
599 1 0.609771 0.416291 0.5
948 1 0.672542 0.413676 0.5
1038 1 0.68587 0.423093 0.5
1150 1 0.722998 0.427716 0.5
1489 1 0.737931 0.405526 0.5
3 1 0.746678 0.424506 0.5
360 1 0.749594 0.425036 0.5
1075 1 0.75721 0.420461 0.5
938 1 0.823075 0.425111 0.5
1420 1 0.821409 0.417072 0.5
448 1 0.942311 0.418567 0.5
1343 1 0.945464 0.410702 0.5
1596 2 0.983187 0.428202 0.5
1553 2 0.0350709 0.436278 0.5
1022 1 0.0496477 0.429662 0.5
1043 1 0.0504807 0.429667 0.5
1467 1 0.108731 0.449693 0.5
251 1 0.138064 0.448165 0.5
1080 1 0.12658 0.430655 0.5
1384 1 0.177274 0.450363 0.5
426 1 0.206726 0.452128 0.5
596 1 0.204168 0.445454 0.5
1077 1 0.20036 0.449373 0.5
235 1 0.217198 0.44709 0.5
826 1 0.31799 0.449956 0.5
1463 1 0.31079 0.440732 0.5
546 1 0.372014 0.440578 0.5
901 1 0.365529 0.438765 0.5
944 1 0.374334 0.431487 0.5
752 1 0.47233 0.450936 0.5
366 1 0.567885 0.436152 0.5
301 1 0.572049 0.432546 0.5
921 1 0.577762 0.447461 0.5
764 1 0.657728 0.430057 0.5
60 1 0.672247 0.447297 0.5
703 1 0.676055 0.452206 0.5
858 1 0.693666 0.447816 0.5
885 1 0.691941 0.446187 0.5
322 1 0.749654 0.44255 0.5
193 1 0.776666 0.433577 0.5
311 1 0.804571 0.432574 0.5
608 1 0.816175 0.444838 0.5
254 1 0.852349 0.430785 0.5
918 1 0.834024 0.441531 0.5
1271 1 0.837058 0.44061 0.5
1390 1 0.869604 0.433173 0.5
236 1 0.902329 0.443748 0.5
1595 2 0.901675 0.449585 0.5
84 1 0.936422 0.439086 0.5
548 1 0.951475 0.447525 0.5
1212 1 0.950762 0.450491 0.5
474 1 0.952428 0.449907 0.5
1298 1 0.965874 0.437297 0.5
1351 1 0.0234103 0.457472 0.5
257 1 0.0434021 0.459204 0.5
150 1 0.123785 0.462382 0.5
564 1 0.138839 0.471322 0.5
389 1 0.186914 0.461638 0.5
323 1 0.210238 0.476046 0.5
1329 1 0.209762 0.466289 0.5
607 1 0.216604 0.456182 0.5
1149 1 0.225112 0.455007 0.5
1301 1 0.228385 0.464741 0.5
747 1 0.253613 0.47171 0.5
1096 1 0.243558 0.472316 0.5
1247 1 0.295798 0.470836 0.5
1379 1 0.401052 0.47487 0.5
750 1 0.41063 0.459584 0.5
1280 1 0.417889 0.465465 0.5
212 1 0.545098 0.465717 0.5
278 1 0.586985 0.45736 0.5
1387 1 0.574432 0.474419 0.5
947 1 0.60192 0.470255 0.5
410 1 0.730675 0.453568 0.5
736 1 0.77405 0.457583 0.5
339 1 0.83938 0.46259 0.5
684 1 0.851755 0.452384 0.5
65 1 0.972064 0.472167 0.5
545 1 0.960342 0.469547 0.5
860 1 0.031564 0.495868 0.5
334 1 0.0557208 0.499479 0.5
1070 1 0.0674411 0.482103 0.5
1534 2 0.058993 0.494695 0.5
939 1 0.0871948 0.482698 0.5
330 1 0.142589 0.493693 0.5
735 1 0.121169 0.495546 0.5
763 1 0.122478 0.479864 0.5
368 1 0.163473 0.490091 0.5
1166 1 0.327333 0.486235 0.5
1297 1 0.338578 0.479364 0.5
22 1 0.385344 0.483601 0.5
1211 1 0.39183 0.489812 0.5
341 1 0.46555 0.495337 0.5
1270 1 0.45829 0.478382 0.5
96 1 0.514815 0.498243 0.5
419 1 0.522014 0.496917 0.5
656 1 0.539209 0.48867 0.5
1383 1 0.533736 0.498754 0.5
408 1 0.587642 0.494177 0.5
1157 1 0.59258 0.493058 0.5
294 1 0.615368 0.49198 0.5
1353 1 0.613701 0.480693 0.5
51 1 0.620128 0.496672 0.5
395 1 0.666716 0.494261 0.5
394 1 0.695573 0.491272 0.5
529 1 0.704378 0.488361 0.5
1139 1 0.721931 0.489498 0.5
1361 1 0.721217 0.490022 0.5
367 1 0.75406 0.494811 0.5
1249 1 0.773576 0.491733 0.5
1409 1 0.762152 0.497026 0.5
1507 2 0.79214 0.49431 0.5
827 1 0.819806 0.48443 0.5
870 1 0.827541 0.477355 0.5
308 1 0.851103 0.490278 0.5
485 1 0.854078 0.489351 0.5
552 1 0.891205 0.48945 0.5
1071 1 0.966056 0.496288 0.5
47 1 0.979978 0.482495 0.5
1243 1 0.0209141 0.502811 0.5
64 1 0.0583995 0.519651 0.5
1039 1 0.142055 0.511838 0.5
1513 2 0.183942 0.521263 0.5
1121 1 0.196378 0.523491 0.5
1579 2 0.211193 0.515728 0.5
1113 1 0.220118 0.522033 0.5
1293 1 0.226484 0.514222 0.5
1285 1 0.321504 0.509593 0.5
346 1 0.351015 0.509971 0.5
1561 2 0.355477 0.501294 0.5
1499 1 0.451449 0.501802 0.5
198 1 0.461386 0.518275 0.5
577 1 0.459838 0.503666 0.5
329 1 0.523086 0.501918 0.5
1238 1 0.527847 0.521675 0.5
1417 1 0.546886 0.518459 0.5
1425 1 0.528323 0.520358 0.5
823 1 0.630839 0.508229 0.5
270 1 0.70444 0.521325 0.5
1364 1 0.722468 0.5177 0.5
327 1 0.778813 0.504913 0.5
1570 2 0.776731 0.509741 0.5
220 1 0.797377 0.50782 0.5
1125 1 0.794402 0.514859 0.5
376 1 0.83147 0.523436 0.5
465 1 0.8326 0.516602 0.5
782 1 0.871215 0.516543 0.5
1165 1 0.889184 0.517858 0.5
554 1 0.932381 0.520155 0.5
1172 1 0.94434 0.516696 0.5
444 1 0.970518 0.501057 0.5
1064 1 0.0223437 0.530641 0.5
1465 1 0.0257354 0.534401 0.5
336 1 0.0701812 0.536185 0.5
595 1 0.0528663 0.523828 0.5
1216 1 0.0538788 0.54136 0.5
742 1 0.078333 0.542469 0.5
900 1 0.0906495 0.546101 0.5
1371 1 0.0926129 0.544171 0.5
277 1 0.166272 0.532268 0.5
1406 1 0.233208 0.529827 0.5
314 1 0.26861 0.525027 0.5
707 1 0.284972 0.526346 0.5
673 1 0.329834 0.525249 0.5
1183 1 0.326622 0.529671 0.5
272 1 0.336737 0.543597 0.5
611 1 0.377137 0.535304 0.5
568 1 0.39933 0.544266 0.5
867 1 0.419738 0.536566 0.5
411 1 0.432173 0.533629 0.5
1098 1 0.434197 0.546192 0.5
181 1 0.464184 0.543077 0.5
593 1 0.469538 0.531915 0.5
285 1 0.522553 0.544889 0.5
450 1 0.514639 0.529701 0.5
1130 1 0.528384 0.54479 0.5
424 1 0.570449 0.541501 0.5
1140 1 0.577649 0.544112 0.5
1199 1 0.591571 0.526624 0.5
982 1 0.600317 0.532511 0.5
80 1 0.705214 0.535794 0.5
210 1 0.80309 0.537316 0.5
873 1 0.866814 0.534532 0.5
1582 2 0.878356 0.534041 0.5
423 1 0.913521 0.547449 0.5
372 1 0.995747 0.52663 0.5
737 1 0.986288 0.545373 0.5
778 1 0.996224 0.540902 0.5
863 1 0.0197271 0.553177 0.5
205 1 0.0310923 0.567763 0.5
1334 1 0.0686952 0.560057 0.5
1012 1 0.077203 0.550171 0.5
741 1 0.10023 0.557534 0.5
981 1 0.158182 0.559206 0.5
232 1 0.204591 0.554568 0.5
1484 1 0.266112 0.550635 0.5
207 1 0.306453 0.563843 0.5
573 1 0.302942 0.552189 0.5
887 1 0.301931 0.554685 0.5
1556 2 0.289972 0.556586 0.5
1573 2 0.304489 0.552296 0.5
258 1 0.315259 0.562067 0.5
309 1 0.315794 0.552953 0.5
585 1 0.327158 0.54802 0.5
116 1 0.417121 0.553012 0.5
589 1 0.410695 0.549453 0.5
133 1 0.431877 0.560895 0.5
556 1 0.430865 0.549725 0.5
1073 1 0.442348 0.549056 0.5
1153 1 0.430152 0.562811 0.5
583 1 0.494946 0.558712 0.5
478 1 0.561763 0.558513 0.5
1551 2 0.591334 0.550993 0.5
67 1 0.616027 0.563812 0.5
1268 1 0.626975 0.562184 0.5
565 1 0.729193 0.549889 0.5
1306 1 0.76055 0.570872 0.5
1323 1 0.7665 0.570513 0.5
893 1 0.830342 0.552004 0.5
846 1 0.835399 0.559123 0.5
348 1 0.868541 0.562567 0.5
271 1 0.947377 0.569653 0.5
1122 1 0.949281 0.568789 0.5
682 1 0.0435281 0.577012 0.5
756 1 0.0342473 0.593966 0.5
120 1 0.0691722 0.576756 0.5
1134 1 0.0605452 0.582911 0.5
38 1 0.115047 0.59139 0.5
1198 1 0.154851 0.586766 0.5
61 1 0.187991 0.572209 0.5
40 1 0.210364 0.583984 0.5
1171 1 0.250347 0.574769 0.5
192 1 0.273908 0.574434 0.5
479 1 0.282596 0.593377 0.5
66 1 0.324839 0.575159 0.5
1116 1 0.323114 0.572794 0.5
430 1 0.34983 0.590202 0.5
1118 1 0.33436 0.583564 0.5
1363 1 0.346378 0.576089 0.5
1472 1 0.352804 0.572174 0.5
26 1 0.368095 0.578073 0.5
288 1 0.411768 0.585415 0.5
679 1 0.428249 0.581269 0.5
208 1 0.439911 0.584282 0.5
644 1 0.451395 0.594224 0.5
189 1 0.514166 0.591853 0.5
609 1 0.631498 0.583152 0.5
78 1 0.65845 0.572176 0.5
733 1 0.661188 0.588668 0.5
1014 1 0.658748 0.57476 0.5
1066 1 0.708192 0.588219 0.5
191 1 0.736156 0.576845 0.5
1592 2 0.720628 0.586856 0.5
510 1 0.779294 0.590774 0.5
930 1 0.810649 0.584881 0.5
1468 1 0.84022 0.582698 0.5
391 1 0.868244 0.579462 0.5
1580 2 0.873599 0.574421 0.5
303 1 0.898827 0.589388 0.5
178 1 0.921318 0.588193 0.5
290 1 0.925185 0.578613 0.5
326 1 0.973082 0.590691 0.5
1058 1 0.995394 0.58611 0.5
415 1 0.00110697 0.604814 0.5
1317 1 0.0438868 0.605531 0.5
1473 1 0.0746478 0.605412 0.5
1541 2 0.086785 0.595868 0.5
443 1 0.188172 0.608621 0.5
1287 1 0.197037 0.605881 0.5
1325 1 0.247671 0.611582 0.5
1494 1 0.249158 0.600999 0.5
640 1 0.33448 0.599574 0.5
620 1 0.381187 0.60602 0.5
1095 1 0.382436 0.603519 0.5
969 1 0.429024 0.607501 0.5
93 1 0.496733 0.598 0.5
504 1 0.540882 0.597811 0.5
804 1 0.528982 0.601925 0.5
518 1 0.631976 0.612725 0.5
520 1 0.619779 0.617934 0.5
196 1 0.652205 0.605639 0.5
540 1 0.668626 0.595695 0.5
312 1 0.690581 0.598221 0.5
1213 1 0.699626 0.611646 0.5
103 1 0.726995 0.598313 0.5
135 1 0.781496 0.600054 0.5
824 1 0.821955 0.600267 0.5
889 1 0.852418 0.597509 0.5
749 1 0.892581 0.606346 0.5
960 1 0.895556 0.603791 0.5
407 1 0.909419 0.610269 0.5
834 1 0.923818 0.616891 0.5
223 1 0.939109 0.606112 0.5
289 1 0.948272 0.612506 0.5
194 1 0.0226466 0.621444 0.5
1307 1 0.00527321 0.626807 0.5
76 1 0.0663788 0.62873 0.5
56 1 0.0879764 0.619618 0.5
428 1 0.108742 0.626694 0.5
1539 2 0.0976758 0.637239 0.5
467 1 0.121594 0.637162 0.5
1146 1 0.136945 0.640555 0.5
498 1 0.192992 0.62376 0.5
1591 2 0.265463 0.632005 0.5
1282 1 0.306815 0.642584 0.5
470 1 0.367682 0.635089 0.5
530 1 0.378927 0.631991 0.5
1469 1 0.368872 0.629162 0.5
8 1 0.393862 0.638515 0.5
840 1 0.45943 0.634501 0.5
1228 1 0.466153 0.635979 0.5
810 1 0.49745 0.642493 0.5
1103 1 0.495009 0.621322 0.5
1423 1 0.513275 0.619891 0.5
1476 1 0.521665 0.626741 0.5
1505 2 0.56861 0.630716 0.5
515 1 0.619779 0.627592 0.5
754 1 0.62323 0.621677 0.5
796 1 0.623289 0.619742 0.5
1000 1 0.670473 0.640327 0.5
147 1 0.710396 0.626191 0.5
42 1 0.721702 0.641436 0.5
740 1 0.73604 0.630944 0.5
532 1 0.780784 0.641315 0.5
690 1 0.833203 0.64066 0.5
92 1 0.864617 0.6251 0.5
619 1 0.914537 0.631216 0.5
924 1 0.907576 0.625086 0.5
890 1 0.981057 0.625748 0.5
1493 1 0.0161625 0.643525 0.5
1586 2 0.0155678 0.648086 0.5
759 1 0.0400824 0.664165 0.5
1055 1 0.0619768 0.643714 0.5
681 1 0.143669 0.650142 0.5
365 1 0.178179 0.653078 0.5
1341 1 0.174312 0.657984 0.5
1128 1 0.209059 0.647829 0.5
716 1 0.22905 0.650321 0.5
941 1 0.257729 0.653965 0.5
1509 2 0.30753 0.655615 0.5
39 1 0.311754 0.649502 0.5
997 1 0.353642 0.657182 0.5
209 1 0.361853 0.664106 0.5
954 1 0.362863 0.644658 0.5
250 1 0.395291 0.653549 0.5
317 1 0.382558 0.658434 0.5
437 1 0.399635 0.657992 0.5
1104 1 0.39547 0.666193 0.5
1442 1 0.388448 0.643261 0.5
1474 1 0.41439 0.660827 0.5
441 1 0.445746 0.65801 0.5
1186 1 0.460621 0.66387 0.5
1337 1 0.484658 0.652325 0.5
833 1 0.530532 0.651048 0.5
935 1 0.612878 0.643852 0.5
1466 1 0.617579 0.65807 0.5
832 1 0.660955 0.665739 0.5
1129 1 0.684218 0.659072 0.5
1543 2 0.683801 0.649838 0.5
1242 1 0.692192 0.663794 0.5
1255 1 0.695047 0.657986 0.5
85 1 0.724142 0.656941 0.5
808 1 0.719976 0.643557 0.5
1069 1 0.734316 0.654751 0.5
665 1 0.750202 0.645813 0.5
768 1 0.78965 0.652223 0.5
476 1 0.836536 0.657726 0.5
991 1 0.843854 0.662016 0.5
671 1 0.944883 0.654515 0.5
1324 1 0.976001 0.656579 0.5
1335 1 0.952975 0.655634 0.5
967 1 0.0444273 0.689066 0.5
1414 1 0.0302657 0.676099 0.5
1085 1 0.0555523 0.667218 0.5
1040 1 0.0753667 0.688011 0.5
820 1 0.107793 0.674566 0.5
1326 1 0.119456 0.688934 0.5
233 1 0.155868 0.673679 0.5
143 1 0.215189 0.681394 0.5
794 1 0.259873 0.686788 0.5
669 1 0.267488 0.670145 0.5